;
; Include force-field
#include "oplsaa.ff/forcefield.itp"

[ atomtypes ]
#CYA
  opls_807  O807    15.9990     0.000    A    2.96000E-01   8.78640E-01
  opls_801  O801    15.9990     0.000    A    2.96000E-01   8.78640E-01
  opls_803  C803    12.0110     0.000    A    3.55000E-01   2.92880E-01
  opls_805  N805    14.0070     0.000    A    3.25000E-01   7.11280E-01
  opls_802  N802    14.0070     0.000    A    3.25000E-01   7.11280E-01
  opls_806  C806    12.0110     0.000    A    3.55000E-01   2.92880E-01
  opls_808  N808    14.0070     0.000    A    3.25000E-01   7.11280E-01
  opls_804  O804    15.9990     0.000    A    2.96000E-01   8.78640E-01
  opls_809  H809     1.0080     0.000    A    0.00000E+00   0.00000E+00
  opls_810  H810     1.0080     0.000    A    0.00000E+00   0.00000E+00
  opls_800  C800    12.0110     0.000    A    3.55000E-01   2.92880E-01
  opls_811  H811     1.0080     0.000    A    0.00000E+00   0.00000E+00
#MEL
  opls_852  H812     1.0080     0.000    A    0.00000E+00   0.00000E+00
  opls_843  N803    14.0070     0.000    A    3.25000E-01   7.11280E-01
  opls_844  C804    12.0110     0.000    A    3.55000E-01   2.92880E-01
  opls_853  H813     1.0080     0.000    A    0.00000E+00   0.00000E+00
  opls_845  N805    14.0070     0.000    A    3.25000E-01   7.11280E-01
  opls_854  H814     1.0080     0.000    A    0.00000E+00   0.00000E+00
  opls_846  N806    14.0070     0.000    A    3.25000E-01   7.11280E-01
  opls_842  C802    12.0110     0.000    A    3.55000E-01   2.92880E-01
  opls_848  N808    14.0070     0.000    A    3.25000E-01   7.11280E-01
  opls_841  N801    14.0070     0.000    A    3.25000E-01   7.11280E-01
  opls_849  H809     1.0080     0.000    A    0.00000E+00   0.00000E+00
  opls_847  N807    14.0070     0.000    A    3.25000E-01   7.11280E-01
  opls_840  C800    12.0110     0.000    A    3.55000E-01   2.92880E-01
  opls_850  H810     1.0080     0.000    A    0.00000E+00   0.00000E+00
  opls_851  H811     1.0080     0.000    A    0.00000E+00   0.00000E+00


;Include topologies
#include "CYA.itp"
#include "MEL.itp"

[ system ]
CYA+MEL

[ molecules ]
CYA 1
MEL 1
